<?xml version="1.0"?>
<VTKFile type="UnstructuredGrid"  version="0.1"  >
<UnstructuredGrid>
<Piece  NumberOfPoints="10201" NumberOfCells="20000">
<Points>
<DataArray  type="Float64"  NumberOfComponents="3"  format="ascii">0 0 0  0.01 0 0  0.02 0 0  0.03 0 0  0.04 0 0  0.05 0 0  0.06 0 0  0.07000000000000001 0 0  0.08 0 0  0.09 0 0  0.1 0 0  0.11 0 0  0.12 0 0  0.13 0 0  0.14 0 0  0.15 0 0  0.16 0 0  0.17 0 0  0.18 0 0  0.19 0 0  0.2 0 0  0.21 0 0  0.22 0 0  0.23 0 0  0.24 0 0  0.25 0 0  0.26 0 0  0.27 0 0  0.28 0 0  0.29 0 0  0.3 0 0  0.31 0 0  0.32 0 0  0.33 0 0  0.34 0 0  0.35 0 0  0.36 0 0  0.37 0 0  0.38 0 0  0.39 0 0  0.4 0 0  0.41 0 0  0.42 0 0  0.43 0 0  0.44 0 0  0.45 0 0  0.46 0 0  0.47 0 0  0.48 0 0  0.49 0 0  0.5 0 0  0.51 0 0  0.52 0 0  0.53 0 0  0.54 0 0  0.55 0 0  0.5600000000000001 0 0  0.57 0 0  0.58 0 0  0.59 0 0  0.6 0 0  0.61 0 0  0.62 0 0  0.63 0 0  0.64 0 0  0.65 0 0  0.66 0 0  0.67 0 0  0.68 0 0  0.6899999999999999 0 0  0.7 0 0  0.71 0 0  0.72 0 0  0.73 0 0  0.74 0 0  0.75 0 0  0.76 0 0  0.77 0 0  0.78 0 0  0.79 0 0  0.8 0 0  0.8100000000000001 0 0  0.82 0 0  0.83 0 0  0.84 0 0  0.85 0 0  0.86 0 0  0.87 0 0  0.88 0 0  0.89 0 0  0.9 0 0  0.91 0 0  0.92 0 0  0.93 0 0  0.9399999999999999 0 0  0.95 0 0  0.96 0 0  0.97 0 0  0.98 0 0  0.99 0 0  1 0 0  0 0.01 0  0.01 0.01 0  0.02 0.01 0  0.03 0.01 0  0.04 0.01 0  0.05 0.01 0  0.06 0.01 0  0.07000000000000001 0.01 0  0.08 0.01 0  0.09 0.01 0  0.1 0.01 0  0.11 0.01 0  0.12 0.01 0  0.13 0.01 0  0.14 0.01 0  0.15 0.01 0  0.16 0.01 0  0.17 0.01 0  0.18 0.01 0  0.19 0.01 0  0.2 0.01 0  0.21 0.01 0  0.22 0.01 0  0.23 0.01 0  0.24 0.01 0  0.25 0.01 0  0.26 0.01 0  0.27 0.01 0  0.28 0.01 0  0.29 0.01 0  0.3 0.01 0  0.31 0.01 0  0.32 0.01 0  0.33 0.01 0  0.34 0.01 0  0.35 0.01 0  0.36 0.01 0  0.37 0.01 0  0.38 0.01 0  0.39 0.01 0  0.4 0.01 0  0.41 0.01 0  0.42 0.01 0  0.43 0.01 0  0.44 0.01 0  0.45 0.01 0  0.46 0.01 0  0.47 0.01 0  0.48 0.01 0  0.49 0.01 0  0.5 0.01 0  0.51 0.01 0  0.52 0.01 0  0.53 0.01 0  0.54 0.01 0  0.55 0.01 0  0.5600000000000001 0.01 0  0.57 0.01 0  0.58 0.01 0  0.59 0.01 0  0.6 0.01 0  0.61 0.01 0  0.62 0.01 0  0.63 0.01 0  0.64 0.01 0  0.65 0.01 0  0.66 0.01 0  0.67 0.01 0  0.68 0.01 0  0.6899999999999999 0.01 0  0.7 0.01 0  0.71 0.01 0  0.72 0.01 0  0.73 0.01 0  0.74 0.01 0  0.75 0.01 0  0.76 0.01 0  0.77 0.01 0  0.78 0.01 0  0.79 0.01 0  0.8 0.01 0  0.8100000000000001 0.01 0  0.82 0.01 0  0.83 0.01 0  0.84 0.01 0  0.85 0.01 0  0.86 0.01 0  0.87 0.01 0  0.88 0.01 0  0.89 0.01 0  0.9 0.01 0  0.91 0.01 0  0.92 0.01 0  0.93 0.01 0  0.9399999999999999 0.01 0  0.95 0.01 0  0.96 0.01 0  0.97 0.01 0  0.98 0.01 0  0.99 0.01 0  1 0.01 0  0 0.02 0  0.01 0.02 0  0.02 0.02 0  0.03 0.02 0  0.04 0.02 0  0.05 0.02 0  0.06 0.02 0  0.07000000000000001 0.02 0  0.08 0.02 0  0.09 0.02 0  0.1 0.02 0  0.11 0.02 0  0.12 0.02 0  0.13 0.02 0  0.14 0.02 0  0.15 0.02 0  0.16 0.02 0  0.17 0.02 0  0.18 0.02 0  0.19 0.02 0  0.2 0.02 0  0.21 0.02 0  0.22 0.02 0  0.23 0.02 0  0.24 0.02 0  0.25 0.02 0  0.26 0.02 0  0.27 0.02 0  0.28 0.02 0  0.29 0.02 0  0.3 0.02 0  0.31 0.02 0  0.32 0.02 0  0.33 0.02 0  0.34 0.02 0  0.35 0.02 0  0.36 0.02 0  0.37 0.02 0  0.38 0.02 0  0.39 0.02 0  0.4 0.02 0  0.41 0.02 0  0.42 0.02 0  0.43 0.02 0  0.44 0.02 0  0.45 0.02 0  0.46 0.02 0  0.47 0.02 0  0.48 0.02 0  0.49 0.02 0  0.5 0.02 0  0.51 0.02 0  0.52 0.02 0  0.53 0.02 0  0.54 0.02 0  0.55 0.02 0  0.5600000000000001 0.02 0  0.57 0.02 0  0.58 0.02 0  0.59 0.02 0  0.6 0.02 0  0.61 0.02 0  0.62 0.02 0  0.63 0.02 0  0.64 0.02 0  0.65 0.02 0  0.66 0.02 0  0.67 0.02 0  0.68 0.02 0  0.6899999999999999 0.02 0  0.7 0.02 0  0.71 0.02 0  0.72 0.02 0  0.73 0.02 0  0.74 0.02 0  0.75 0.02 0  0.76 0.02 0  0.77 0.02 0  0.78 0.02 0  0.79 0.02 0  0.8 0.02 0  0.8100000000000001 0.02 0  0.82 0.02 0  0.83 0.02 0  0.84 0.02 0  0.85 0.02 0  0.86 0.02 0  0.87 0.02 0  0.88 0.02 0  0.89 0.02 0  0.9 0.02 0  0.91 0.02 0  0.92 0.02 0  0.93 0.02 0  0.9399999999999999 0.02 0  0.95 0.02 0  0.96 0.02 0  0.97 0.02 0  0.98 0.02 0  0.99 0.02 0  1 0.02 0  0 0.03 0  0.01 0.03 0  0.02 0.03 0  0.03 0.03 0  0.04 0.03 0  0.05 0.03 0  0.06 0.03 0  0.07000000000000001 0.03 0  0.08 0.03 0  0.09 0.03 0  0.1 0.03 0  0.11 0.03 0  0.12 0.03 0  0.13 0.03 0  0.14 0.03 0  0.15 0.03 0  0.16 0.03 0  0.17 0.03 0  0.18 0.03 0  0.19 0.03 0  0.2 0.03 0  0.21 0.03 0  0.22 0.03 0  0.23 0.03 0  0.24 0.03 0  0.25 0.03 0  0.26 0.03 0  0.27 0.03 0  0.28 0.03 0  0.29 0.03 0  0.3 0.03 0  0.31 0.03 0  0.32 0.03 0  0.33 0.03 0  0.34 0.03 0  0.35 0.03 0  0.36 0.03 0  0.37 0.03 0  0.38 0.03 0  0.39 0.03 0  0.4 0.03 0  0.41 0.03 0  0.42 0.03 0  0.43 0.03 0  0.44 0.03 0  0.45 0.03 0  0.46 0.03 0  0.47 0.03 0  0.48 0.03 0  0.49 0.03 0  0.5 0.03 0  0.51 0.03 0  0.52 0.03 0  0.53 0.03 0  0.54 0.03 0  0.55 0.03 0  0.5600000000000001 0.03 0  0.57 0.03 0  0.58 0.03 0  0.59 0.03 0  0.6 0.03 0  0.61 0.03 0  0.62 0.03 0  0.63 0.03 0  0.64 0.03 0  0.65 0.03 0  0.66 0.03 0  0.67 0.03 0  0.68 0.03 0  0.6899999999999999 0.03 0  0.7 0.03 0  0.71 0.03 0  0.72 0.03 0  0.73 0.03 0  0.74 0.03 0  0.75 0.03 0  0.76 0.03 0  0.77 0.03 0  0.78 0.03 0  0.79 0.03 0  0.8 0.03 0  0.8100000000000001 0.03 0  0.82 0.03 0  0.83 0.03 0  0.84 0.03 0  0.85 0.03 0  0.86 0.03 0  0.87 0.03 0  0.88 0.03 0  0.89 0.03 0  0.9 0.03 0  0.91 0.03 0  0.92 0.03 0  0.93 0.03 0  0.9399999999999999 0.03 0  0.95 0.03 0  0.96 0.03 0  0.97 0.03 0  0.98 0.03 0  0.99 0.03 0  1 0.03 0  0 0.04 0  0.01 0.04 0  0.02 0.04 0  0.03 0.04 0  0.04 0.04 0  0.05 0.04 0  0.06 0.04 0  0.07000000000000001 0.04 0  0.08 0.04 0  0.09 0.04 0  0.1 0.04 0  0.11 0.04 0  0.12 0.04 0  0.13 0.04 0  0.14 0.04 0  0.15 0.04 0  0.16 0.04 0  0.17 0.04 0  0.18 0.04 0  0.19 0.04 0  0.2 0.04 0  0.21 0.04 0  0.22 0.04 0  0.23 0.04 0  0.24 0.04 0  0.25 0.04 0  0.26 0.04 0  0.27 0.04 0  0.28 0.04 0  0.29 0.04 0  0.3 0.04 0  0.31 0.04 0  0.32 0.04 0  0.33 0.04 0  0.34 0.04 0  0.35 0.04 0  0.36 0.04 0  0.37 0.04 0  0.38 0.04 0  0.39 0.04 0  0.4 0.04 0  0.41 0.04 0  0.42 0.04 0  0.43 0.04 0  0.44 0.04 0  0.45 0.04 0  0.46 0.04 0  0.47 0.04 0  0.48 0.04 0  0.49 0.04 0  0.5 0.04 0  0.51 0.04 0  0.52 0.04 0  0.53 0.04 0  0.54 0.04 0  0.55 0.04 0  0.5600000000000001 0.04 0  0.57 0.04 0  0.58 0.04 0  0.59 0.04 0  0.6 0.04 0  0.61 0.04 0  0.62 0.04 0  0.63 0.04 0  0.64 0.04 0  0.65 0.04 0  0.66 0.04 0  0.67 0.04 0  0.68 0.04 0  0.6899999999999999 0.04 0  0.7 0.04 0  0.71 0.04 0  0.72 0.04 0  0.73 0.04 0  0.74 0.04 0  0.75 0.04 0  0.76 0.04 0  0.77 0.04 0  0.78 0.04 0  0.79 0.04 0  0.8 0.04 0  0.8100000000000001 0.04 0  0.82 0.04 0  0.83 0.04 0  0.84 0.04 0  0.85 0.04 0  0.86 0.04 0  0.87 0.04 0  0.88 0.04 0  0.89 0.04 0  0.9 0.04 0  0.91 0.04 0  0.92 0.04 0  0.93 0.04 0  0.9399999999999999 0.04 0  0.95 0.04 0  0.96 0.04 0  0.97 0.04 0  0.98 0.04 0  0.99 0.04 0  1 0.04 0  0 0.05 0  0.01 0.05 0  0.02 0.05 0  0.03 0.05 0  0.04 0.05 0  0.05 0.05 0  0.06 0.05 0  0.07000000000000001 0.05 0  0.08 0.05 0  0.09 0.05 0  0.1 0.05 0  0.11 0.05 0  0.12 0.05 0  0.13 0.05 0  0.14 0.05 0  0.15 0.05 0  0.16 0.05 0  0.17 0.05 0  0.18 0.05 0  0.19 0.05 0  0.2 0.05 0  0.21 0.05 0  0.22 0.05 0  0.23 0.05 0  0.24 0.05 0  0.25 0.05 0  0.26 0.05 0  0.27 0.05 0  0.28 0.05 0  0.29 0.05 0  0.3 0.05 0  0.31 0.05 0  0.32 0.05 0  0.33 0.05 0  0.34 0.05 0  0.35 0.05 0  0.36 0.05 0  0.37 0.05 0  0.38 0.05 0  0.39 0.05 0  0.4 0.05 0  0.41 0.05 0  0.42 0.05 0  0.43 0.05 0  0.44 0.05 0  0.45 0.05 0  0.46 0.05 0  0.47 0.05 0  0.48 0.05 0  0.49 0.05 0  0.5 0.05 0  0.51 0.05 0  0.52 0.05 0  0.53 0.05 0  0.54 0.05 0  0.55 0.05 0  0.5600000000000001 0.05 0  0.57 0.05 0  0.58 0.05 0  0.59 0.05 0  0.6 0.05 0  0.61 0.05 0  0.62 0.05 0  0.63 0.05 0  0.64 0.05 0  0.65 0.05 0  0.66 0.05 0  0.67 0.05 0  0.68 0.05 0  0.6899999999999999 0.05 0  0.7 0.05 0  0.71 0.05 0  0.72 0.05 0  0.73 0.05 0  0.74 0.05 0  0.75 0.05 0  0.76 0.05 0  0.77 0.05 0  0.78 0.05 0  0.79 0.05 0  0.8 0.05 0  0.8100000000000001 0.05 0  0.82 0.05 0  0.83 0.05 0  0.84 0.05 0  0.85 0.05 0  0.86 0.05 0  0.87 0.05 0  0.88 0.05 0  0.89 0.05 0  0.9 0.05 0  0.91 0.05 0  0.92 0.05 0  0.93 0.05 0  0.9399999999999999 0.05 0  0.95 0.05 0  0.96 0.05 0  0.97 0.05 0  0.98 0.05 0  0.99 0.05 0  1 0.05 0  0 0.06 0  0.01 0.06 0  0.02 0.06 0  0.03 0.06 0  0.04 0.06 0  0.05 0.06 0  0.06 0.06 0  0.07000000000000001 0.06 0  0.08 0.06 0  0.09 0.06 0  0.1 0.06 0  0.11 0.06 0  0.12 0.06 0  0.13 0.06 0  0.14 0.06 0  0.15 0.06 0  0.16 0.06 0  0.17 0.06 0  0.18 0.06 0  0.19 0.06 0  0.2 0.06 0  0.21 0.06 0  0.22 0.06 0  0.23 0.06 0  0.24 0.06 0  0.25 0.06 0  0.26 0.06 0  0.27 0.06 0  0.28 0.06 0  0.29 0.06 0  0.3 0.06 0  0.31 0.06 0  0.32 0.06 0  0.33 0.06 0  0.34 0.06 0  0.35 0.06 0  0.36 0.06 0  0.37 0.06 0  0.38 0.06 0  0.39 0.06 0  0.4 0.06 0  0.41 0.06 0  0.42 0.06 0  0.43 0.06 0  0.44 0.06 0  0.45 0.06 0  0.46 0.06 0  0.47 0.06 0  0.48 0.06 0  0.49 0.06 0  0.5 0.06 0  0.51 0.06 0  0.52 0.06 0  0.53 0.06 0  0.54 0.06 0  0.55 0.06 0  0.5600000000000001 0.06 0  0.57 0.06 0  0.58 0.06 0  0.59 0.06 0  0.6 0.06 0  0.61 0.06 0  0.62 0.06 0  0.63 0.06 0  0.64 0.06 0  0.65 0.06 0  0.66 0.06 0  0.67 0.06 0  0.68 0.06 0  0.6899999999999999 0.06 0  0.7 0.06 0  0.71 0.06 0  0.72 0.06 0  0.73 0.06 0  0.74 0.06 0  0.75 0.06 0  0.76 0.06 0  0.77 0.06 0  0.78 0.06 0  0.79 0.06 0  0.8 0.06 0  0.8100000000000001 0.06 0  0.82 0.06 0  0.83 0.06 0  0.84 0.06 0  0.85 0.06 0  0.86 0.06 0  0.87 0.06 0  0.88 0.06 0  0.89 0.06 0  0.9 0.06 0  0.91 0.06 0  0.92 0.06 0  0.93 0.06 0  0.9399999999999999 0.06 0  0.95 0.06 0  0.96 0.06 0  0.97 0.06 0  0.98 0.06 0  0.99 0.06 0  1 0.06 0  0 0.07000000000000001 0  0.01 0.07000000000000001 0  0.02 0.07000000000000001 0  0.03 0.07000000000000001 0  0.04 0.07000000000000001 0  0.05 0.07000000000000001 0  0.06 0.07000000000000001 0  0.07000000000000001 0.07000000000000001 0  0.08 0.07000000000000001 0  0.09 0.07000000000000001 0  0.1 0.07000000000000001 0  0.11 0.07000000000000001 0  0.12 0.07000000000000001 0  0.13 0.07000000000000001 0  0.14 0.07000000000000001 0  0.15 0.07000000000000001 0  0.16 0.07000000000000001 0  0.17 0.0700
[...]
<PointData  Scalars="f_5"> 
<DataArray  type="Float64"  Name="f_5"  format="ascii">-1.0000000000000000e+00  -1.0000000000000000e+00  -1.0000000000000000e+00  -1.0000000000000000e+00  -1.0000000000000000e+00  -1.0000000000000000e+00  -1.0000000000000000e+00  -1.0000000000000000e+00  -1.0000000000000000e+00  -1.0000000000000000e+00  -1.0000000000000000e+00  -1.0000000000000000e+00  -1.0000000000000000e+00  -1.0000000000000000e+00  -1.0000000000000000e+00  -1.0000000000000000e+00  -1.0000000000000000e+00  -1.0000000000000000e+00  -1.0000000000000000e+00  -1.0000000000000000e+00  -1.0000000000000000e+00  -1.0000000000000000e+00  -1.0000000000000000e+00  -1.0000000000000000e+00  -1.0000000000000000e+00  -1.0000000000000000e+00  -1.0000000000000000e+00  -1.0000000000000000e+00  -1.0000000000000000e+00  -1.0000000000000000e+00  -1.0000000000000000e+00  -1.0000000000000000e+00  -1.0000000000000000e+00  -1.0000000000000000e+00  -1.0000000000000000e+00  -1.0000000000000000e+00  -1.0000000000000000e+00  -1.0000000000000000e+00  -1.0000000000000000e+00  -1.0000000000000000e+00  -1.0000000000000000e+00  -1.0000000000000000e+00  -1.0000000000000000e+00  -1.0000000000000000e+00  -1.0000000000000000e+00  -1.0000000000000000e+00  -1.0000000000000000e+00  -1.0000000000000000e+00  -1.0000000000000000e+00  -1.0000000000000000e+00  -1.0000000000000000e+00  -1.0000000000000000e+00  -1.0000000000000000e+00  -1.0000000000000000e+00  -1.0000000000000000e+00  -1.0000000000000000e+00  -1.0000000000000000e+00  -1.0000000000000000e+00  -1.0000000000000000e+00  -1.0000000000000000e+00  -1.0000000000000000e+00  -1.0000000000000000e+00  -1.0000000000000000e+00  -1.0000000000000000e+00  -1.0000000000000000e+00  -1.0000000000000000e+00  -1.0000000000000000e+00  -1.0000000000000000e+00  -1.0000000000000000e+00  -1.0000000000000000e+00  -1.0000000000000000e+00  -1.0000000000000000e+00  -1.0000000000000000e+00  -1.0000000000000000e+00  -1.0000000000000000e+00  -1.0000000000000000e+00  -1.0000000000000000e+00  -1.0000000000000000e+00  -1.0000000000000000e+00  -1.0000000000000000e+00  -1.0000000000000000e+00  -1.0000000000000000e+00  -1.0000000000000000e+00  -1.0000000000000000e+00  -1.0000000000000000e+00  -1.0000000000000000e+00  -1.0000000000000000e+00  -1.0000000000000000e+00  -1.0000000000000000e+00  -1.0000000000000000e+00  -1.0000000000000000e+00  -1.0000000000000000e+00  -1.0000000000000000e+00  -1.0000000000000000e+00  -1.0000000000000000e+00  -1.0000000000000000e+00  -1.0000000000000000e+00  -1.0000000000000000e+00  -1.0000000000000000e+00  -1.0000000000000000e+00  -1.0000000000000000e+00  1.0000000000000000e+00  -9.5801688794851974e-04  -4.0508937223055180e-01  -6.0059609848537654e-01  -7.1124562091110921e-01  -7.8190328072493032e-01  -8.3101414366819315e-01  -8.6713275761485797e-01  -8.9468304789322128e-01  -9.1618342171965617e-01  -9.3319408244898228e-01  -9.4675570042706436e-01  -9.5760697794860017e-01  -9.6629876016309224e-01  -9.7325691271725534e-01  -9.7881875362106507e-01  -9.8325540680034273e-01  -9.8678645231797990e-01  -9.8959021887413723e-01  -9.9181148888975701e-01  -9.9356755830085774e-01  -9.9495315937777917e-01  -9.9604453091350087e-01  -9.9690280680546572e-01  -9.9757683766205862e-01  -9.9810553180915940e-01  -9.9851978694788557e-01  -9.9884407425398014e-01  -9.9909772945654163e-01  -9.9929599897410348e-01  -9.9945088307160979e-01  -9.9957181219071345e-01  -9.9966618718674116e-01  -9.9973980927614092e-01  -9.9979722112061087e-01  -9.9984197666819175e-01  -9.9987685412180338e-01  -9.9990402367222775e-01  -9.9992517936194392e-01  -9.9994164257952745e-01  -9.9995444316273574e-01  -9.9996438285674538e-01  -9.9997208488265177e-01  -9.9997803257690054e-01  -9.9998259942770151e-01  -9.9998607232846892e-01  -9.9998866946494280e-01  -9.9999055393045122e-01  -9.9999184390511764e-01  -9.9999262002519618e-01  -9.9999293039611159e-01  -9.9999279355711501e-01  -9.9999219957810015e-01  -9.9999110935241176e-01  -9.9998945203633505e-01  -9.9998712046948568e-01  -9.9998396428341685e-01  -9.9997978026069956e-01  -9.9997429933478188e-01  -9.9996716941182884e-01  -9.9995793293722512e-01  -9.9994599780659732e-01  -9.9993059981590204e-01  -9.9991075433513221e-01  -9.9988519424847910e-01  -9.9985229039770096e-01  -9.9980994975594573e-01  -9.9975548530043779e-01  -9.9968544999134612e-01  -9.9959542534157164e-01  -9.9947975271447087e-01  -9.9933119264930015e-01  -9.9914049412857220e-01  -9.9889585172357964e-01  -9.9858222396754415e-01  -9.9818048113588853e-01  -9.9766634494048179e-01  -9.9700907660499294e-01  -9.9616986353861692e-01  -9.9509984843300447e-01  -9.9373773778430630e-01  -9.9200691838349864e-01  -9.8981199700331968e-01  -9.8703465306500715e-01  -9.8352864150017472e-01  -9.7911367414518835e-01  -9.7356768795505977e-01  -9.6661657566104586e-01  -9.5791962107442952e-01  -9.4704728933936566e-01  -9.3344495942423034e-01  -9.1637013769609965e-01  -8.9477819048185547e-01  -8.6710410354853940e-01  -8.3082230867035434e-01  -7.8149719276479657e-01  -7.1055843264902130e-01  -5.9956238568903319e-01  -4.0377500140195710e-01  4.8370268563170493e-09  1.0000000000000000e+00  1.0000000000000000e+00  4.0440862054689802e-01  -2.5300991217124425e-04  -2.6459830263817030e-01  -4.4241271095420320e-01  -5.6770507675570769e-01  -6.5989752424827386e-01  -7.3006169779075314e-01  -7.8474083668694772e-01  -8.2801038807577865e-01  -8.6256212029749890e-01  -8.9027964306978913e-01  -9.1255021237873923e-01  -9.3043799119264414e-01  -9.4478341092882601e-01  -9.5626262507396109e-01  -9.6542517362220304e-01  -9.7271956184085551e-01  -9.7851192896860728e-01  -9.8310054193411034e-01  -9.8672754938742024e-01  -9.8958875590093442e-01  -9.9184183748962240e-01  -9.9361325698819525e-01  -9.9500406293988053e-01  -9.9609472141080813e-01  -9.9694911268976416e-01  -9.9761781298466590e-01  -9.9814077039710492e-01  -9.9854947324931276e-01  -9.9886869723096061e-01  -9.9911790626173858e-01  -9.9931237090705882e-01  -9.9946405800005267e-01  -9.9958233602555713e-01  -9.9967453289260599e-01  -9.9974637594673321e-01  -9.9980233837622012e-01  -9.9984591143758383e-01  -9.9987981804179260e-01  -9.9990618008021948e-01  -9.9992664931214470e-01  -9.9994250957934427e-01  -9.9995475646696719e-01  -9.9996415921584170e-01  -9.9997130864434292e-01  -9.9997665400381652e-01  -9.9998053102565998e-01  -9.9998318288382826e-01  -9.9998477536363906e-01  -9.9998540717137097e-01  -9.9998511601841233e-01  -9.9998388085073131e-01  -9.9998162035337090e-01  -9.9997818762586654e-01  -9.9997336068366383e-01  -9.9996682817803695e-01  -9.9995816942669191e-01  -9.9994682749101782e-01  -9.9993207360252889e-01  -9.9991296070491031e-01  -9.9988826320821877e-01  -9.9985639921032210e-01  -9.9981533038122361e-01  -9.9976243337201987e-01  -9.9969433493351634e-01  -9.9960670082815906e-01  -9.9949396599655782e-01  -9.9934899018535206e-01  -9.9916261923216509e-01  -9.9892312730265731e-01  -9.9861550945069499e-01  -9.9822058680635539e-01  -9.9771387840639469e-01  -9.9706418415692777e-01  -9.9623181276067529e-01  -9.9516637691433951e-01  -9.9380406614647310e-01  -9.9206429597195545e-01  -9.8984562129296461e-01  -9.8702079254905895e-01  -9.8343082413272920e-01  -9.7887793204477003e-01  -9.7311717100120143e-01  -9.6584653650475683e-01  -9.5669514695218394e-01  -9.4520879411019587e-01  -9.3083148253436498e-01  -9.1288027658748172e-01  -8.9050831719799961e-01  -8.6264631783486889e-01  -8.2790443193035812e-01  -7.8440062503917685e-01  -7.2945148908061874e-01  -6.5900220686809097e-01  -5.6655562400246751e-01  -4.4114157200833565e-01  -2.6354163904380484e-01  1.9270793001199787e-08  4.0377502057711134e-01  1.0000000000000000e+00  1.0000000000000000e+00  6.0031336830200233e-01  2.6428470464779613e-01  -1.2863711556490391e-04  -2.0446115136201912e-01  -3.6316978003181349e-01  -4.8804375848271253e-01  -5.8756876827793847e-01  -6.6766193149885689e-01  -7.3249626563419079e-01  -7.8511176492671908e-01  -8.2781194527458413e-01  -8.6240675945134504e-01  -8.9035813880833958e-01  -9.1286773582514402e-01  -9.3093186288316576e-01  -9.4537839576519089e-01  -9.5689387921909619e-01  -9.6604515973098726e-01  -9.7329766680802576e-01  -9.7903130839977437e-01  -9.8355439525696398e-01  -9.8711578287212098e-01  -9.8991535166052946e-01  -9.9211294394757910e-01  -9.9383589334946809e-01  -9.9518529753227702e-01  -9.9624119212829565e-01  -9.9706678130116733e-01  -9.9771187113904680e-01  -9.9821563832399085e-01  -9.9860885067332084e-01  -9.9891563988858023e-01  -9.9915491131059764e-01  -9.9934146131830082e-01  -9.9948686052866575e-01  -9.9960015022619042e-01  -9.9968839039983504e-01  -9.9975709024237591e-01  -9.9981054578580342e-01  -9.9985210431400673e-01  -9.9988437112680140e-01  -9.9990937096112109e-01  -9.9992867376049177e-01  -9.9994349239852154e-01  -9.9995475830179681e-01  -9.9996317959573278e-01  -9.9996928534234986e-01  -9.9997345859320086e-01  -9.9997596029579372e-01  -9.9997694552822225e-01  -9.9997647306117077e-01  -9.9997450883060901e-01  -9.9997092352322725e-01  -9.9996548410672226e-01  -9.9995783875578814e-01  -9.9994749420870421e-01  -9.9993378411331968e-01  -9.9991582635615750e-01  -9.9989246668037046e-01  -9.9986220504671730e-01  -9.9982310012709796e-01  -9.9977264598196081e-01  -9.9970761328696423e-01  -9.9962384535021043e-01  -9.9951599648975287e-01  -9.9937719699096583e-01  -9.9919862468080445e-01  -9.9896895796415708e-01  -9.9867367877023039e-01  -9.9829418604768594e-01  -9.9780667102684217e-01  -9.9718069427473410e-01  -9.9637739153129901e-01  -9.9534722052314994e-01  -9.9402714476680931e-01  -9.9233713356930620e-01  -9.9017584136142012e-01  -9.8741531623988510e-01  -9.8389458001848096e-01  -9.7941192362206442e-01  -9.7371577543208421e-01  -9.6649402695050124e-01  -9.5736173396509483e-01  -9.4584713179110957e-01  -9.3137586178429621e-01  -9.1325310625742795e-01  -8.9064279518511469e-01  -8.6254188934898424e-01  -8.2774550941761382e-01  -7.8479471587456162e-01  -7.3189217888124891e-01  -6.6676080525338577e-01  -5.8640597876098288e-01  -4.8672526535577604e-01  -3.6190224911839203e-01  -2.0357096672358174e-01  4.2806439397936923e-08  2.6354169596009269e-01  5.9956241360508866e-01  1.0000000000000000e+00  1.0000000000000000e+00  7.1110859904067758e-01  4.4221985643970790e-01  2.0426838352980825e-01  -8.4507234430619227e-05  -1.7307605620830574e-01  -3.1863796278857603e-01  -4.4076216407913660e-01  -5.4294967973037989e-01  -6.2815153458719597e-01  -6.9886325592648657e-01  -7.5723095538870422e-01  -8.0512763634085271e-01  -8.4419880604056297e-01  -8.7588789745573781e-01  -9.0145186372415587e-01  -9.2197383424731494e-01  -9.3837627202963747e-01  -9.5143567460258360e-01  -9.6179855098814315e-01  -9.6999789044260198e-01  -9.7646929001892457e-01  -9.8156607874816371e-01  -9.8557301103492079e-01  -9.8871831973889601e-01  -9.9118408813025394e-01  -9.9311501436034155e-01  -9.9462570971211794e-01  -9.9580670411838434e-01  -9.9672934040571759e-01  -9.9744973157031902e-01  -9.9801193987170911e-01  -9.9845051726355472e-01  -9.9879252661373996e-01  -9.9905914402822948e-01  -9.9926692528724603e-01  -9.9942880429648628e-01  -9.9955487859630165e-01  -9.9965302622330898e-01  -9.9972938935879496e-01  -9.9978875297206293e-01  -9.9983484082152718e-01  -9.9987054647789908e-01  -9.9989811327513867e-01  -9.9991927409796544e-01  -9.9993535952965140e-01  -9.9994738098591718e-01  -9.9995609394732587e-01  -9.9996204518941556e-01  -9.9996560692781034e-01  -9.9996699998767213e-01  -9.9996630742537163e-01  -9.9996347943434838e-01  -9.9995832982068322e-01  -9.9995052380350768e-01  -9.9993955634845366e-01  -9.9992471964526164e-01  -9.9990505765682958e-01  -9.9987930485479593e-01  -9.9984580526731048e-01  -9.9980240673925513e-01  -9.9974632377237482e-01  -9.9967396038514522e-01  -9.9958068200270589e-01  -9.9946052232539073e-01  -9.9930580727275642e-01  -9.9910667327083935e-01  -9.9885045112453730e-01  -9.9852087924612931e-01  -9.9809710082582170e-01  -9.9755238836008042e-01  -9.9685252556253268e-01  -9.9595376093311616e-01  -9.9480022921950562e-01  -9.9332071710182324e-01  -9.9142462870673664e-01  -9.8899698700153238e-01  -9.8589229213118823e-01  -9.8192705269420599e-01  -9.7687081865633107e-01  -9.7043558572634914e-01  -9.6226352358219647e-01  -9.5191311764916453e-01  -9.3884401464675526e-01  -9.2240111923991797e-01  -9.0179876400368408e-01  -8.7610597174451210e-01  -8.4423376740979150e-01  -8.0492489440554527e-01  -7.5674479039966380e-01  -6.9806997432914841e-01  -6.2706614211408451e-01  -5.4164429579227102e-01  -4.3938231588422166e-01  -3.1740904532569436e-01  -1.7228411476059236e-01  7.4645079997942785e-08  2.0357107862465174e-01  4.4114164507230402e-01  7.1055846807285916e-01  1.0000000000000000e+00  1.0000000000000000e+00  7.8182735320065511e-01  5.6758181531872154e-01  3.6302839581850671e-01  1.7293607782928394e-01  -6.4216817305520865e-05  -1.5500965419826954e-01  -2.9195166982636506e-01  -4.1152149818712747e-01  -5.1470554209474240e-01  -6.0273257024522697e-01  -6.7699919180753931e-01  -7.3900070893295511e-01  -7.9026156237449852e-01  -8.3227096108038556e-01  -8.6643056919174710e-01  -8.9401810162485085e-01  -9.1616706775091361e-01  -9.3386035763292452e-01  -9.4793419976959448e-01  -9.5908892253526079e-01  -9.6790346504066704e-01  -9.7485132787348694e-01  -9.8031639199128584e-01  -9.8460764981261062e-01  -9.8797235280407358e-01  -9.9060739495282213e-01  -9.9266894962910712e-01  -9.9428048968873395e-01  -9.9553937457621777e-01  -9.9652220490648236e-01  -9.9728913977794653e-01  -9.9788735520425942e-01  -9.9835380012804764e-01  -9.9871738346176564e-01  -9.9900070370017802e-01  -9.9922141295851108e-01  -9.9939329021980339e-01  -9.9952708414189817e-01  -9.9963117378888655e-01  -9.9971208582992233e-01  -9.9977489877936643e-01  -9.9982355843488713e-01  -9.9986112353085421e-01  -9.9988995652437429e-01  -9.9991187116761493e-01  -9.9992824592300655e-01  -9.9994011020726137e-01  -9.9994820879067192e-01  -9.9995304833518739e-01  -9.9995492895014682e-01  -9.9995396271286818e-01  -9.9995008028659693e-01  -9.9994302602110974e-01  -9.9993234119576557e-01  -9.9991733431631136e-01  -9.9989703655916984e-01  -9.9987013952003256e-01  -9.9983491131023106e-01  -9.9978908568743219e-01  -9.9972971722604342e-01  -9.9965299342926883e-01  -9.9955399203914463e-01  -9.9942636846667965e-01  -9.9926195406367557e-01  -9.9905024067745463e-01  -9.9877772031782075e-01  -9.9842704053286391e-01  -9.9797592591765005e-01  -9.9739580373847514e-01  -9.9665005664673001e-01  -9.9569180768668875e-01  -9.9446112230850592e-01  -9.9288148935913179e-01  -9.9085541928486376e-01  -9.8825897554769437e-01  -9.8493503902008028e-01  -9.8068510232170725e-01  -9.7525941332061195e-01  -9.6834535146723699e-01  -9.5955405088304790e-01  -9.4840550999573880e-01  -9.3431278164236908e-01  -9.1656634617704735e-01  -8.9432043422654184e-01  -8.6658382966919412e-01  -8.3221839216479421e-01  -7.8994889732249751e-01  -7.3838736395492433e-01  -6.7607334050917833e-01  -6.0152841135641566e-01  -5.1331895717080778e-01  -4.1011787189024168e-01  -2.9075737656414397e-01  -1.5427705438371137e-01  1.1381967044013769e-07  1.7228429710096169e-01  3.6190238306316536e-01  5.6655571009312566e-01  7.8149723414086691e-01  1.0000000000000000e+00  1.0000000000000000e+00  8.3096742063380569e-01  6.5981488163378277e-01  4.8793952366280441e-01  3.1852480894434548e-01  1.5489675334216890e-01  -5.3407452086854001e-05  -1.4402335029958452e-01  -2.7533925767290651e-01  -3.9297258753903214e-01  -4.9653214606290702e-01  -5.8621322725211589e-01  -6.6270066607062528e-01  -7.2704022663135282e-01  -7.8050085974807881e-01  -8.2444846919224124e-01  -8.6024435766390894e-01  -8.8917319095738256e-01  -9.1239896595723458e-01  -9.3094392943482418e-01  -9.4568425094779784e-01  -9.5735663971312535e-01  -9.6657120606722524e-01  -9.7382714851554353e-01  -9.7952899747497757e-01  -9.8400205030324506e-01  -9.8750627900535093e-01  -9.9024842068091257e-01  -9.9239222392315574e-01  -9.9406697140991684e-01  -9.9537446957285758e-01  -9.9639471964578430e-01  -9.9719048061839410e-01  -9.9781091672082556e-01  -9.9829449813079763e-01  -9.9867129836775748e-01  -9.9896480788914532e-01  -9.9919336196172581e-01  -9.9937126238040197e-01  -9.9950965703899264e-01  -9.9961722848702217e-01  -9.9970073210201538e-01  -9.9976541601365709e-01  -9.9981534809622497e-01  -9.9985366989529834e-01  -9.9988279301115190e-01  -9.9990455000246059e-01  -9.9992030911514052e-01  -9.9993105992972497e-01  -9.9993747523087939e-01  -9.9993995293045557e-01  -9.9993864063370319e-01  -9.9993344435226239e-01  -9.9992402187129681e-01  -9.9990976031045709e-01  -9.9988973641962053e-01  -9.9986265705889621e-01  -9.9982677606112424e-01  -9.9977978218769903e-01  -9.9971865107536684e-01  -9.9963945182512781e-01  -9.9953709607398533e-01  -9.9940501385697456e-01  -9.9923473611737645e-01  -9.9901535812436271e-01  -9.9873285103312692e-01  -9.9836918005271180e-01  -9.9790117681424129e-01  -9.9729910018337842e-01  -9.9652480358813211e-01  -9.9552940769711251e-01  -9.9425035499655123e-01  -9.9260769798409454e-01  -9.9049944671834844e-01  -9.8779577723099721e-01  -9.8433188513984138e-01  -9.7989926775109149e-01  -9.7423524756369040e-01  -9.6701063257080133e-01  -9.5781557598958778e-01  -9.4614399263769289e-01  -9.3137736211663447e-01  -9.1276945020118583e-01  -8.8943443583063941e-01  -8.6034210293693414e-01  -8.2432497553884410e-01  -7.8010316733482155e-01  -7.2633265720854567e-01  -6.6168087435940626e-01  -5.8492916323002864e-01  -4.9509485723566043e-01  -3.9155770819336277e-01  -2.7416958257726037e-01  -1.4332728215576757e-01  1.5929660481556003e-07  1.5427732060557509e-01  3.1740925400025016e-01  4.8672541585550033e-01  6.5900230234932178e-01  8.3082235426611484e-01  1.0000000000000000e+00  1.0000000000000000e+00  8.6710171637745737e-01  7.3000383856971141e-01  5.8749086390370431e-01  4.4067155497729749e-01  2.9185496720784943e-01  1.4392592800607862e-01  -4.7029792142893157e-05  -1.3712201679791311e-01  -2.6475606339761076e-01  -3.8101975051390563e-01  -4.8471960689725296e-01  -5.7541165314532894e-01  -6.5331809422946141e-01  -7.1918039856559113e-01  -7.7408829794752565e-01  -8.1931770412767613e-01  -8.5619782923961663e-01  -8.8601516353571386e-01  -9.0995285127955317e-01  -9.2905912704017124e-01  -9.4423696572113047e-01  -9.5624763941858182e-01  -9.6572233005722419e-01  -9.7317758238117091e-01  -9.7903182127508648e-01  -9.8362126826326579e-01  -9.8721437502364184e-01  -9.9002440378212220e-01  -9.9222009534918376e-01  -9.9393453798656295e-01  -9.9527243311834890e-01  -9.9631598213317130e-01  -9.9712961574355552e-01  -9.9776376866973082e-01  -9.9825787699655355e-01  -9.9864274871346603e-01  -9.9894243251651971e-01  -9.9917568725163164e-01  -9.9935713485733391e-01  -9.9949816329187424e-01  -9.9960763243349404e-01  -9.9969242495612942e-01  -9.9975787531845850e-01  -9.9980810289631450e-01  -9.9984626961078782e-01  -9.9987477787592327e-01  -9.9989542107394869e-01  -9.9990949586524824e-01  -9.9991788329141140e-01  -9.9992110369686971e-01  -9.9991934886382450e-01  -9.9991249332852672e-01  -9.9990008553775800e-01  -9.9988131823226190e-01  -9.9985497613041863e-01  -9.9981935754962836e-01  -9.9977216495644528e-01  -9.9971035747928538e-01  -9.9962995603197047e-01  -9.9952578874186770e-01  -9.9939116068294920e-01  -9.9921742727586005e-01  -9.9899344488600084e-01  -9.9870486483168053e-01  -9.9833322786435930e-01  -9.9785480481662581e-01  -9.9723911512368391e-01  -9.9644703792645206e-01  -9.9542841018433559e-01  -9.9411898265473064e-01  -9.9243657825941722e-01  -9.9027626975444305e-01  -9.8750436792345997e-01  -9.8395099364436223e-01  -9.7940100737017233e-01  -9.7358310453070929e-01  -9.6615698101481262e-01  -9.5669866723319463e-01  -9.4468447426806068e-01  -9.2947455556363567e-01  -9.1029792897366479e-01  -8.8624196920967391e-01  -8.5625083631074383e-01  -8.1913885796477870e-01  -7.7362607101636371e-01  -7.1840313713940751e-01  -6.5223055921283768e-01  -5.7407144181214786e-01  -4.8324762245724967e-01  -3.7959727993431414e-01  -2.6360199992712430e-0